27
energy=-121.76618756 config_type=nep2xyz pbc="T T T" virial="9.281295635616736 -4.352853765146355 6.161579828231754 -4.352853765146355 8.754877271964123 2.1446760671436325 6.161579828231754 2.1446760671436325 8.26787069025305" Lattice="10.793967597 0.0 0.0 -5.396983798 9.347850146 0.0 0.0 0.0 5.800997416" volume=585.3229108146729 Properties=species:S:1:pos:R:3:force:R:3
Li 2.22024 9.11874 3.00529 -0.020453 0.213258 0.007623
Li -2.87642 6.66763 5.56854 -1.40663 0.987314 0.763924
Li 2.15528 3.37965 0.08856 -0.191673 -0.24627 -0.063239
Li 3.7526 0.09023 2.71576 -0.51307 -0.416468 0.293264
Li 8.8102 3.06515 5.52395 0.079084 0.054676 0.266477
Li 3.56439 6.26976 2.90293 0.429182 0.171336 0.42505
Zr 0.08209 0.12117 5.65698 -0.932121 -0.26443 -0.459053
Zr 0.00014 6.30221 2.73282 1.442526 -1.229259 1.142051
Zr 5.41703 3.09447 2.91933 0.963239 -0.205542 0.810594
Cl -3.86391 8.17252 4.13795 0.292061 0.553688 0.348389
Cl 8.94605 0.89223 1.22796 -0.00608 0.589301 -0.17717
Cl 0.07599 2.39283 4.56261 0.00303 -0.887492 -0.244067
Cl 5.38828 7.66673 1.42253 0.156037 -1.134171 0.150823
Cl 3.68839 8.12697 4.53949 -0.416844 0.054321 -0.618332
Cl 1.68394 0.89616 1.36524 1.124159 0.953155 0.589115
Cl -1.938 7.18936 1.77185 -0.601558 0.620164 -0.636089
Cl 7.43237 2.05422 3.91982 -0.236971 -0.117838 0.25517
Cl -0.09416 4.23334 1.3158 0.066952 0.742106 0.889559
Cl 5.48569 5.22147 4.15498 0.140203 -0.405492 0.20198
Cl 2.03751 7.21504 1.49334 -1.227153 -0.11134 0.240216
Cl 3.65024 1.65643 4.27512 0.412679 1.162237 0.372942
Cl 1.58441 5.14993 4.29955 0.14309 0.455551 -0.198794
Cl 3.53784 4.17048 2.00725 -1.263582 0.104465 -1.570881
Cl 0.13774 8.18339 4.38112 0.017219 0.007688 -0.732369
Cl 5.13438 1.2027 1.48176 0.318901 -0.893434 -0.932052
Cl -1.75042 5.46361 4.50155 1.240581 -1.510234 -1.436036
Cl 6.88953 3.69756 1.05618 -0.012811 0.752709 0.310905
27
energy=-121.90415051 config_type=nep2xyz pbc="T T T" virial="2.476965466316306 2.463853778757148 0.11528713410541419 2.463853778757148 1.2651883436506135 -1.3811330714480443 0.11528713410541419 -1.3811330714480443 3.3366742328727743" Lattice="10.793967597 0.0 0.0 -5.396983798 9.347850146 0.0 0.0 0.0 5.800997416" volume=585.3229108146729 Properties=species:S:1:pos:R:3:force:R:3
Li 2.17368 9.19035 2.7145 -0.381243 0.372024 0.075239
Li 6.50407 6.10334 5.77222 0.513119 0.636824 0.153055
Li 2.22253 3.10519 0.00069 -1.549767 -0.261978 -0.410327
Li -1.8708 9.26038 2.96708 0.027797 -0.23827 -0.080958
Li -1.93292 3.44615 5.77101 0.277906 0.05924 -0.034167
Li 3.82424 6.56054 2.87093 -0.554338 -0.591489 0.463933
Zr 10.59289 0.11092 0.14422 1.888792 2.576419 -1.350066
Zr 0.06673 6.16373 2.9136 -0.217959 -0.873892 -0.203295
Zr 5.22315 3.02135 2.77088 1.743892 -0.424611 -0.421898
Cl -3.67722 8.62487 4.46504 -0.456408 -0.685244 0.245688
Cl 9.02035 1.57763 1.22692 -0.429242 -1.173765 0.442595
Cl 0.10713 2.24059 4.39958 -0.131992 -1.152054 0.824818
Cl 5.22205 7.49153 1.47406 0.355917 -0.910244 0.417252
Cl 3.70421 8.32681 4.52514 -1.130859 -0.528286 -1.057265
Cl 1.66348 0.7507 1.51837 0.408049 0.542029 0.228103
Cl -1.51415 7.01338 1.17991 0.147477 -0.008611 1.10157
Cl 7.36181 2.19212 3.84994 -0.916018 -0.003208 0.000694
Cl 0.26377 3.86347 1.5617 0.065735 1.54298 0.398355
Cl 5.5219 5.14368 4.1004 -0.763728 -0.347844 -0.699454
Cl 1.83 7.11754 1.46478 0.558494 0.346575 0.294681
Cl 3.5922 2.09515 4.26898 0.405171 -0.194501 -0.343212
Cl 1.81994 5.2478 4.50873 0.043104 0.315731 -0.765494
Cl 3.66039 3.99833 1.23273 0.701294 0.745698 0.781341
Cl 0.04656 8.1844 4.44694 0.011841 -0.227367 -1.160673
Cl 5.31557 0.89077 1.36793 0.008119 0.856728 0.72567
Cl -1.61207 5.05302 4.20781 -0.420247 0.471238 -0.137743
Cl 7.01485 4.39794 1.23269 -0.204904 -0.844123 0.511557
27
energy=-122.87905659 config_type=nep2xyz pbc="T T T" virial="3.341964208795221 2.5596615263857085 -3.2890279165878678 2.5596615263857085 5.8825299450244195 1.67457329661568 -3.2890279165878678 1.67457329661568 -0.11482316522271344" Lattice="10.793967597 0.0 0.0 -5.396983798 9.347850146 0.0 0.0 0.0 5.800997416" volume=585.3229108146729 Properties=species:S:1:pos:R:3:force:R:3
Li 1.58272 9.1996 0.16582 0.17939 0.177922 -0.234142
Li 6.91796 5.98923 5.76104 0.367907 0.200688 0.190396
Li 2.05546 3.73762 0.03095 -0.121296 -0.530252 0.005685
Li 3.34047 0.29936 3.34371 -0.096661 0.050463 -0.139306
Li -1.44676 3.18048 2.49421 -0.027991 -0.423371 0.112559
Li 3.72055 6.36886 2.90024 0.021538 0.105029 0.063154
Zr -5.35762 9.32735 0.00017 0.30551 1.98111 0.204532
Zr -0.10865 6.22311 3.03589 0.590321 1.486262 -1.804514
Zr 5.42454 3.00518 2.74541 1.034412 1.105352 2.532369
Cl -3.6754 8.33407 4.41041 0.330655 -0.442877 -0.56283
Cl 9.02256 0.95516 1.37188 -0.064847 0.008976 0.39676
Cl -0.20515 2.21738 4.50587 0.54837 -0.764244 0.124557
Cl 5.43071 7.33983 1.32826 0.037778 -0.597038 0.710668
Cl 3.75366 8.34346 4.44478 -0.711513 -0.2394 -0.607966
Cl 2.02907 0.93886 1.32103 -0.804346 0.049899 -0.094196
Cl -1.79289 6.95768 1.25715 0.411306 0.261701 1.01823
Cl 6.91447 1.91571 4.57038 0.034413 0.572683 -1.10914
Cl 0.13797 4.40213 1.28979 -0.064277 -0.374833 0.586741
Cl 5.40871 5.04752 4.41772 -0.060399 0.098485 -0.673244
Cl 1.65487 7.23876 1.36142 0.070127 -0.086029 0.716918
Cl 3.71934 2.36592 4.50243 -0.364753 -0.38431 -0.547585
Cl 1.89121 5.32982 4.21606 -0.329743 0.418327 -0.227428
Cl 3.71845 4.27448 1.62117 -0.153389 0.174078 -0.330821
Cl -0.20039 8.42508 4.30627 0.042897 -0.89414 -0.421164
Cl 5.25911 1.09487 1.52411 -0.134558 -1.179524 -0.641615
Cl -1.6667 5.06258 4.26651 -0.721046 -0.383907 0.452791
Cl 7.28468 4.10309 1.50572 -0.319808 -0.391051 0.278593
27
energy=-123.67173841 config_type=nep2xyz pbc="T T T" virial="0.9733299966421071 -1.345904316047388 -0.9280583242450385 -1.345904316047388 0.2649664183033077 1.8528323333282821 -0.9280583242450385 1.8528323333282821 0.2254706105011201" Lattice="10.793967597 0.0 0.0 -5.396983798 9.347850146 0.0 0.0 0.0 5.800997416" volume=585.3229108146729 Properties=species:S:1:pos:R:3:force:R:3
Li 7.02302 0.19298 5.6821 0.082983 -0.064518 0.132554
Li 7.11115 5.89679 5.66986 0.057924 0.076457 -0.03372
Li 1.91134 3.19176 5.65414 -0.077951 -0.049698 0.150493
Li -1.75235 9.25092 2.79601 -0.481896 -0.174814 0.145203
Li 9.07925 2.79059 2.79685 0.008753 0.200188 0.110209
Li 3.40542 6.30553 2.74628 0.373866 0.185587 0.347491
Zr -5.35985 9.32488 5.79919 0.552994 -0.478697 0.317899
Zr 0.03006 6.27449 2.97571 -0.426551 -0.273773 0.108903
Zr 5.32064 3.07688 2.76388 0.992907 0.555838 -0.368941
Cl -3.61529 8.35069 4.32494 -0.260941 -0.227771 0.473412
Cl 9.04365 0.75935 1.43821 -0.279336 0.798069 0.402246
Cl 0.08005 2.00656 4.3985 0.183549 0.146936 0.177848
Cl 5.32178 7.2135 1.43854 0.557208 0.606918 -0.679756
Cl 3.52322 8.63273 4.44803 0.159017 -0.463048 -0.242323
Cl 1.72753 1.12544 1.55781 -0.40278 -0.141226 -0.756374
Cl -1.81485 7.11106 1.54139 0.12107 0.143293 0.325217
Cl 7.09651 2.20566 4.28965 0.004804 0.018016 -0.197381
Cl 0.07328 4.42126 1.4788 0.199047 -0.775362 -0.095445
Cl 5.22418 5.16169 4.20262 0.320028 -0.294861 -0.039478
Cl 1.82736 7.47019 1.58765 -0.713682 -0.614938 0.21652
Cl 3.74193 2.06481 4.15739 -0.982859 -0.410374 0.906771
Cl 1.80328 5.3132 4.42746 0.111115 0.17743 -0.225575
Cl 3.71473 4.4056 1.47893 -0.22717 -0.781623 -0.544621
Cl -0.00179 8.31677 4.29261 -0.277024 0.11848 0.368459
Cl 5.20712 0.82862 1.48985 0.442868 1.143546 -0.279023
Cl -1.55881 4.9113 4.53701 0.120212 0.762602 -0.835424
Cl 7.24345 3.96432 1.43235 -0.158155 -0.182655 0.114839
27
energy=-119.92299738 config_type=nep2xyz pbc="T T T" virial="3.9873010850524975 3.917333116221909 -1.4283519518331405 3.917333116221909 9.97127216366709 -2.015144723009476 -1.4283519518331405 -2.015144723009476 2.10595110528042" Lattice="10.793967597 0.0 0.0 -5.396983798 9.347850146 0.0 0.0 0.0 5.800997416" volume=585.3229108146729 Properties=species:S:1:pos:R:3:force:R:3
Li 2.03566 9.26185 0.6075 -0.372914 0.415579 -0.596462
Li -3.38586 6.21443 5.18486 0.779345 0.036651 0.295113
Li 3.89514 6.20669 0.59978 0.196135 1.637777 -0.960026
Li -1.94752 9.07403 2.68375 0.332031 -0.343926 0.003775
Li -1.76915 3.12801 2.65671 -0.431506 0.096978 -0.131331
Li 1.751 2.33172 3.09973 -0.010955 0.346564 0.771113
Zr 5.25341 9.3291 0.27587 -0.064685 0.351212 -1.319289
Zr 0.23381 5.79439 2.75188 -1.083318 1.8153 0.778554
Zr 5.29207 3.48017 2.91812 1.526866 -0.978697 0.339579
Cl -3.695 8.48675 4.50225 -0.344103 0.126221 0.229457
Cl 8.98635 1.09745 1.87438 0.640039 -0.990608 -0.644332
Cl -0.137 2.0358 4.78746 0.367904 -0.382326 -0.683161
Cl 5.61743 7.46489 1.6529 -0.271385 -0.265073 0.25185
Cl 3.58306 8.26992 4.50735 0.276273 0.618323 1.310889
Cl 1.81755 1.05344 1.36099 0.441605 -0.095356 0.054228
Cl -1.75623 6.84824 1.36048 0.353725 0.567676 0.361244
Cl 6.74492 2.43245 4.80057 0.629945 1.205486 -2.530665
Cl -0.2476 4.10723 1.19032 0.650073 -0.696104 -0.051065
Cl 5.46825 5.62021 4.31084 -0.675673 -1.051534 -0.483218
Cl 1.74904 7.45716 1.7636 0.363311 -0.527915 -0.448492
Cl 3.95448 1.74589 4.14006 -1.309809 0.514097 -0.596873
Cl 2.10082 5.29329 4.1665 -0.275184 -0.741781 0.316091
Cl 3.46923 4.43649 1.37602 -0.044673 -2.362907 1.066916
Cl -0.36499 7.69087 4.22979 0.039544 0.122464 -0.107501
Cl 5.80552 1.33483 1.33582 -1.270794 0.541168 1.754632
Cl -1.46562 4.6021 4.17829 -0.273092 1.094558 0.186965
Cl 6.86587 4.62274 1.38035 -0.168704 -1.053826 0.832007
27
energy=-119.7090102 config_type=nep2xyz pbc="T T T" virial="15.003778235899132 -3.0899925725058233 3.0793833942746187 -3.0899925725058233 10.414241887802769 -1.081208241817465 3.0793833942746187 -1.081208241817465 13.854520006852791" Lattice="10.793967597 0.0 0.0 -5.396983798 9.347850146 0.0 0.0 0.0 5.800997416" volume=585.3229108146729 Properties=species:S:1:pos:R:3:force:R:3
Li 1.33772 8.89498 0.68832 0.12774 0.110204 0.137516
Li -3.48995 6.32631 4.97538 -0.14347 -0.186115 0.069371
Li 4.05023 6.07287 0.11691 -0.441706 0.126182 0.005844
Li -2.14795 8.63958 3.13606 0.749095 1.133767 -0.248603
Li -1.17405 2.45665 2.94467 0.091542 0.260259 -0.014038
Li 2.71797 3.02559 2.86754 -1.927145 0.178003 -0.845382
Zr 10.57549 0.04576 5.78545 1.561966 0.518902 1.834171
Zr 0.00474 6.10112 3.17444 -0.460688 -0.124846 -0.653453
Zr 5.72624 3.30275 2.50956 0.019847 -2.477594 3.83587
Cl -3.90156 8.5938 4.26016 -0.385023 -0.861427 0.50828
Cl 8.71511 1.07141 1.06941 -0.260012 1.172891 1.323209
Cl 0.34135 2.28382 4.9361 -0.61234 -0.618683 -0.853771
Cl 5.02007 7.31845 1.75075 0.808001 1.217459 -1.356732
Cl 3.3033 8.42296 4.86057 -0.669529 -1.502998 -1.805673
Cl 1.65407 0.81613 1.5124 -0.13362 -0.109745 0.327651
Cl -1.76721 7.08916 1.72736 0.065856 -0.107405 -0.358031
Cl 7.4604 2.06898 3.82568 -0.669089 -0.026004 0.1096
Cl 0.21714 4.25035 1.60618 -0.515742 -0.630597 0.365506
Cl 5.27974 5.39839 4.11881 0.574033 -0.529039 0.111207
Cl 1.96717 6.83446 1.75448 -0.823058 0.775874 0.176546
Cl 3.80503 2.37777 4.37778 1.444683 -0.546332 0.428798
Cl 1.61852 5.16649 4.46761 1.376445 -0.722771 1.245894
Cl 3.92318 4.07792 1.40367 -2.201455 1.365491 -1.742564
Cl -0.02086 8.03411 4.77207 -0.6571 0.077343 -0.75724
Cl 5.04141 1.24068 1.3728 0.669386 -0.54936 0.09527
Cl -1.8717 4.77946 4.46112 0.835047 0.961314 -0.49581
Cl 7.23461 4.43502 1.37534 1.576339 1.095227 -1.443437
27
energy=-122.86899948 config_type=nep2xyz pbc="T T T" virial="9.388267862816427 0.8108605151344865 -2.0967667133819186 0.8108605151344865 2.9170563914002687 2.3118071572679946 -2.0967667133819186 2.3118071572679946 6.07525969625968" Lattice="10.793967597 0.0 0.0 -5.396983798 9.347850146 0.0 0.0 0.0 5.800997416" volume=585.3229108146729 Properties=species:S:1:pos:R:3:force:R:3
Li 7.27618 0.37136 3.09849 0.014457 -0.417214 -0.053352
Li -3.31294 6.38516 5.72988 -0.769302 0.071121 -0.198252
Li 2.35964 3.12825 0.09848 -0.080567 0.236131 -0.188767
Li -1.77464 9.2018 2.79034 -0.184638 0.012356 -0.008614
Li 9.04278 2.82451 0.13562 -0.167461 0.34665 -0.153718
Li 3.47549 6.31264 3.35124 -0.051198 0.176914 -0.533436
Zr 0.00721 0.08843 5.74011 2.440141 0.06334 0.740325
Zr -0.08569 6.09036 2.93749 0.338814 0.162681 -0.464753
Zr 5.45334 3.0245 2.73106 -0.366083 0.88115 0.200595
Cl -3.88235 8.27957 4.19293 0.628926 0.061296 0.078652
Cl 9.26524 0.94519 1.57643 -0.733288 0.399555 0.513835
Cl 0.04202 2.16954 4.36046 -0.190276 -0.241941 0.384802
Cl 5.76197 7.47639 1.4232 -0.630457 0.143114 -0.515417
Cl 3.67613 8.48714 4.58548 -1.901609 -0.898782 -1.250468
Cl 2.01582 1.12236 1.10306 -0.231313 -0.192608 0.232727
Cl -1.94627 7.02513 1.5133 1.017844 0.580794 0.76181
Cl 6.95483 2.1757 4.60534 0.185548 -0.030072 -1.055411
Cl -0.22398 4.14483 1.40765 0.45744 0.269915 0.517472
Cl 5.22953 5.13248 4.00883 0.797 -0.060326 0.945448
Cl 1.58799 7.10065 1.49098 0.286211 0.134784 0.109003
Cl 3.69923 1.99803 3.99899 -0.852524 -0.158866 0.594175
Cl 1.76048 5.30993 4.43162 -0.456119 -0.327873 -0.061415
Cl 3.80716 4.4514 1.45105 -0.304537 -0.620224 -0.409795
Cl 0.17885 8.33304 4.18021 -0.598153 -0.425363 -0.135589
Cl 5.29124 0.99384 1.35291 0.528095 0.078707 0.180693
Cl -1.84488 5.27996 4.40553 0.075715 -0.359501 -0.045351
Cl 7.08364 4.04182 1.33272 0.747333 0.114259 -0.1852
27
energy=-122.8759908 config_type=nep2xyz pbc="T T T" virial="7.093824832315966 -0.6451030651667821 -0.9841254930860498 -0.6451030651667821 2.4963864000205356 0.7564519437166735 -0.9841254930860498 0.7564519437166735 4.317614049850832" Lattice="10.793967597 0.0 0.0 -5.396983798 9.347850146 0.0 0.0 0.0 5.800997416" volume=585.3229108146729 Properties=species:S:1:pos:R:3:force:R:3
Li 7.15951 0.08888 0.05164 -0.624057 0.06116 -0.002492
Li 7.08581 6.33591 5.42894 0.593126 0.122525 0.25725
Li 2.22678 3.24927 5.77303 -0.323276 -0.07638 0.004232
Li 3.44998 0.14723 2.92374 0.122203 -0.377831 0.037141
Li -1.48867 2.99227 2.94403 -0.388437 0.218791 -0.002697
Li 3.49691 6.19467 2.60965 0.424622 0.128981 0.000318
Zr 10.61116 0.12578 0.09067 2.451739 -0.638167 -1.160448
Zr 0.07073 6.15284 2.80994 -1.621529 0.003667 2.261562
Zr 5.48569 3.11642 2.9781 0.872778 -0.289582 0.20346
Cl -4.03503 8.39138 4.23311 0.248368 0.165994 0.12517
Cl 9.02369 0.75784 1.61972 -0.993619 0.735269 1.150351
Cl 0.09283 2.27128 4.44549 0.24635 -0.956089 0.617329
Cl 5.52833 7.18242 1.30468 -0.326914 0.845993 -0.237475
Cl 3.42874 8.62 4.53295 0.087025 -0.533542 -0.376703
Cl 1.88414 1.03315 1.30827 -0.612663 0.074045 -0.225693
Cl -1.80225 6.97882 1.69777 -1.044498 0.961489 -0.604957
Cl 7.28876 2.03534 4.40399 -0.574097 0.493089 -0.601148
Cl -0.13485 4.37818 1.24828 0.512455 -1.053075 0.248171
Cl 5.5452 5.27521 4.2689 -0.659781 -0.834448 -0.680626
Cl 1.63727 7.22154 1.49026 1.201174 0.888058 -1.028483
Cl 3.70172 2.08479 4.32275 -0.127767 0.05518 -0.003938
Cl 1.97037 5.50103 4.2352 0.153198 -0.52363 0.490518
Cl 3.91137 4.16986 1.39361 -0.653485 0.235645 0.029448
Cl -0.25295 8.3012 4.37167 0.194832 -0.593003 -0.345067
Cl 5.38057 1.10052 1.49884 -0.362913 -0.355 0.336639
Cl -1.68272 4.9494 4.42266 0.324786 0.588598 -0.697776
Cl 7.08013 3.69551 1.32406 0.880381 0.652263 0.205915
27
energy=-121.75653082 config_type=nep2xyz pbc="T T T" virial="9.365051152189945 -1.6089308329592462 0.4719330729707325 -1.6089308329592462 12.021123220421897 -5.679256774927156 0.4719330729707325 -5.679256774927156 13.637579847856447" Lattice="10.793967597 0.0 0.0 -5.396983798 9.347850146 0.0 0.0 0.0 5.800997416" volume=585.3229108146729 Properties=species:S:1:pos:R:3:force:R:3
Li 7.02476 0.33034 3.66977 -0.085876 -1.083209 -0.304392
Li 6.9907 6.15502 5.35303 0.380447 0.014171 0.108398
Li 1.83601 3.26008 0.24003 -0.615106 -0.227975 -0.428999
Li 3.12848 0.06143 2.80543 0.673885 -0.33488 0.244296
Li 8.76683 2.86846 5.7825 -0.043485 1.422632 -0.82182
Li 3.61341 6.15198 2.6995 -0.257027 -0.019993 0.103386
Zr 10.7745 0.02821 5.69767 -0.441659 3.456913 -0.557786
Zr -0.07754 6.12837 3.17841 1.753367 0.042772 -0.021969
Zr 5.44462 2.97512 2.78039 -1.590791 0.631368 -1.035357
Cl -3.82509 8.47612 4.21927 1.0151 -1.059943 -0.896536
Cl 9.15828 1.36362 1.23185 0.189125 -1.938194 0.945501
Cl 0.22149 2.14538 4.3331 -0.030597 -0.234721 0.415967
Cl 5.22318 7.3298 0.79511 -0.266975 -2.497561 1.921537
Cl 3.68369 8.69981 4.06033 -0.199651 -0.242652 -0.064537
Cl 1.98284 0.8805 1.17224 -0.738932 0.333098 -0.370317
Cl -1.61317 7.25561 1.83246 -1.24482 0.084687 -1.012202
Cl 7.46072 2.41514 3.86374 0.75454 0.089613 0.880584
Cl -0.37576 4.13055 1.78849 0.636814 0.524136 0.039627
Cl 5.33605 5.17501 4.18141 -0.169999 -0.524266 -0.617667
Cl 1.69441 7.34667 1.8098 0.034384 -0.527413 -0.006914
Cl 3.81 1.8331 4.09638 -0.324592 0.732076 0.817915
Cl 2.01329 5.0044 4.27631 -0.695611 0.639865 -0.067482
Cl 3.53398 3.98931 1.38153 0.867081 0.36218 0.539552
Cl -0.17362 8.47207 4.3276 0.118966 -1.066522 0.575263
Cl 5.34156 0.9449 1.44817 0.575095 0.483248 0.006866
Cl -1.50655 5.02508 4.7603 -0.631798 0.549969 0.291157
Cl 6.93661 4.17372 1.29489 0.338116 0.390601 -0.684069
27
energy=-122.74990178 config_type=nep2xyz pbc="T T T" virial="6.019601696827035 1.5764274380821708 0.6156574809575849 1.5764274380821708 3.2460614754111465 -2.9877842462749653 0.6156574809575849 -2.9877842462749653 4.815364981829802" Lattice="10.793967597 0.0 0.0 -5.396983798 9.347850146 0.0 0.0 0.0 5.800997416" volume=585.3229108146729 Properties=species:S:1:pos:R:3:force:R:3
Li 1.44615 9.34102 0.20223 -0.042171 -0.302281 -0.354068
Li -3.36815 6.27891 5.67257 -0.147637 -0.063605 0.048551
Li 1.61056 3.39675 5.72654 0.214047 0.263335 0.180926
Li 3.4064 0.07494 3.02753 -0.101666 -0.034218 -0.128386
Li 9.07451 2.87853 3.36654 0.796689 0.65346 -0.491643
Li 3.90011 6.35469 3.16199 0.276169 8.1e-05 -0.330057
Zr 5.3255 9.32299 0.10547 -0.318965 -1.106605 -0.339524
Zr 0.00186 6.29854 3.00072 0.474856 -1.026812 0.052292
Zr 5.41007 3.20389 2.72418 -0.00745 0.671175 -0.492095
Cl -3.88184 8.2176 4.21801 -0.071183 0.513018 1.109767
Cl 8.64885 0.71626 1.35826 1.329385 0.021943 -0.315357
Cl 0.23278 2.03615 4.41642 -0.286182 -0.490267 0.421646
Cl 5.82781 7.19752 1.51106 -1.03195 0.63958 -0.899858
Cl 3.55097 8.27087 4.39252 0.431297 0.749057 0.501107
Cl 1.57484 0.92614 1.55624 0.117398 0.442126 -0.264438
Cl -1.87055 7.25663 1.90952 -0.355919 -0.036957 -1.121117
Cl 7.20627 2.06592 3.84044 -0.503018 -1.430037 1.733829
Cl -0.01647 4.07665 1.66058 -0.116057 0.383425 0.448198
Cl 5.55198 5.12772 4.43824 -0.241691 -0.495496 -0.522775
Cl 1.64193 7.00687 1.40364 0.114751 0.490273 -0.327996
Cl 3.6967 2.19644 4.00263 -0.827257 -0.428649 1.102533
Cl 2.05933 5.52279 4.21856 -0.745196 -0.624103 0.481897
Cl 3.64336 4.16599 1.36255 0.00393 0.46304 -0.138524
Cl -0.18467 8.44934 4.15153 0.596454 0.098516 0.762385
Cl 5.1942 1.24775 1.15043 -0.125411 -0.013877 0.230633
Cl -1.49891 5.16003 4.66045 0.150823 -0.081954 -0.220102
Cl 7.36572 4.10054 1.71348 0.415952 0.745831 -1.127825
27
energy=-121.51354939 config_type=nep2xyz pbc="T T T" virial="8.216720860909009 -2.7528735129951154 1.1030768853753132 -2.7528735129951154 9.457669570412223 3.93649831904591 1.1030768853753132 3.93649831904591 11.287646869644632" Lattice="10.793967597 0.0 0.0 -5.396983798 9.347850146 0.0 0.0 0.0 5.800997416" volume=585.3229108146729 Properties=species:S:1:pos:R:3:force:R:3
Li 1.66161 9.20203 4.06768 -0.014424 0.160755 0.024665
Li 7.05938 6.203 4.97449 0.09496 -0.148779 0.220118
Li 2.02844 3.58838 5.6901 -0.35795 -0.222868 -0.142372
Li -1.75254 9.29712 3.30281 -0.075044 0.106119 -0.26749
Li 8.96063 2.51411 0.96449 -0.393897 0.79801 -0.037702
Li 3.67185 6.60363 2.77641 -0.12041 -0.229078 0.018397
Zr -5.1606 9.34603 0.15632 0.579797 1.03285 -0.555469
Zr -0.18169 6.22209 2.83095 0.019593 0.250733 0.513074
Zr 5.279 2.98729 2.57196 0.699123 1.006935 0.382984
Cl -3.78894 8.58499 4.13302 0.406849 -0.652283 -0.118709
Cl 9.73931 0.67051 1.92517 -1.448024 0.693378 0.965817
Cl -0.31542 2.38752 5.03081 0.561009 -1.188721 -0.453159
Cl 5.377 7.15465 1.14305 0.352979 -0.321045 0.057678
Cl 3.86506 8.55964 4.36491 -0.836522 -0.630107 0.340378
Cl 2.07462 1.02258 1.4098 -0.10776 0.066383 -0.605714
Cl -1.92252 7.47309 1.74313 -0.066776 -0.286727 -0.278493
Cl 7.26554 2.13727 3.76962 0.219057 -0.373883 0.383542
Cl -0.11709 4.2373 1.57016 0.031965 -0.443957 -0.167333
Cl 5.43746 4.67208 4.29118 -0.253599 1.125775 -0.095355
Cl 1.32764 7.23901 1.18744 0.813589 0.02275 0.901099
Cl 3.50905 2.1101 4.20292 0.45404 0.028687 -0.466776
Cl 1.92541 5.25029 3.91723 -0.08569 0.488418 0.35438
Cl 3.7753 4.28949 1.22504 -0.487944 0.234578 -0.033526
Cl -0.29481 8.14028 4.63682 0.287844 -0.063077 -0.808993
Cl 5.49477 1.07981 1.28101 -0.056815 -0.867645 -0.559713
Cl -1.75611 5.10451 4.35133 0.039738 0.365032 -0.128988
Cl 7.13125 4.37517 1.21025 -0.255688 -0.952232 0.557661
27
energy=-122.87102537 config_type=nep2xyz pbc="T T T" virial="8.592583148774374 0.2972067757035764 -2.813120055078722 0.2972067757035764 6.879854804828563 0.6846098328638366 -2.813120055078722 0.6846098328638366 6.454230940968969" Lattice="10.793967597 0.0 0.0 -5.396983798 9.347850146 0.0 0.0 0.0 5.800997416" volume=585.3229108146729 Properties=species:S:1:pos:R:3:force:R:3
Li 6.85822 0.18838 5.44683 0.195019 -0.088346 -0.10269
Li -3.24207 6.77168 0.07928 0.123839 -0.754759 -0.15708
Li 1.85422 3.13816 5.70517 0.101894 0.043324 -0.131972
Li -2.21406 9.11682 2.90275 0.464326 0.538382 0.009358
Li 8.88868 2.5619 3.53907 0.422327 0.188354 -0.386347
Li 3.27587 6.11529 2.74253 0.461681 0.174234 0.526724
Zr 5.32483 9.27386 0.04785 -0.639348 -0.117677 -0.08583
Zr -0.08254 6.04336 2.8074 -0.070953 2.004531 1.622934
Zr 5.26944 3.18424 2.80986 1.330104 0.416714 0.493749
Cl -3.67633 8.37418 4.37454 -0.050717 -0.412964 -0.332419
Cl 9.0526 0.96777 1.42812 0.00066 0.121337 -0.005662
Cl 0.1898 1.94444 4.44608 0.025863 0.519993 -0.330904
Cl 5.62686 7.15972 1.23184 -0.526941 0.325314 0.313638
Cl 3.57731 8.71325 4.19097 0.053607 -0.346862 0.482681
Cl 1.76187 0.98083 1.27821 0.284911 0.273389 0.429054
Cl -1.58478 7.53195 1.42408 0.006725 -0.468252 0.085201
Cl 7.02734 2.43469 4.62423 -0.436305 -0.094152 -0.501388
Cl 0.15876 4.167 1.59786 -0.187425 -1.972256 -1.175014
Cl 5.1827 5.22335 4.33099 -0.105016 -0.473253 -0.685023
Cl 1.68736 7.14853 1.54222 0.358513 0.337352 -0.458548
Cl 3.72826 1.96679 4.23638 -0.366475 -0.238834 0.150881
Cl 1.73297 5.30407 4.34268 0.530099 -0.16077 0.085261
Cl 3.4626 4.17654 1.55124 0.05503 -0.274452 -0.574457
Cl 0.03379 8.10584 4.27938 -0.374771 0.381491 -0.025774
Cl 5.7121 1.15987 1.43454 -0.683524 0.256809 0.714618
Cl -1.35724 5.07031 4.63066 -0.984286 -0.068064 -0.272484
Cl 7.13536 4.23121 1.59245 0.011162 -0.110585 0.311495
27
energy=-123.97615264 config_type=nep2xyz pbc="T T T" virial="-0.8826478265129887 1.324485028179085 0.009911398258008958 1.324485028179085 1.1354597214088522 0.02290618027191897 0.009911398258008958 0.02290618027191897 1.4113823812808177" Lattice="10.793967597 0.0 0.0 -5.396983798 9.347850146 0.0 0.0 0.0 5.800997416" volume=585.3229108146729 Properties=species:S:1:pos:R:3:force:R:3
Li 1.36882 9.26426 0.01629 0.041163 0.080834 -0.119557
Li 7.33515 5.80011 0.0363 0.044516 0.066794 0.073804
Li 2.02823 3.47436 5.78604 -0.112032 -0.08714 0.05165
Li -2.17027 9.08104 2.69128 0.272915 0.172607 0.212138
Li 8.95456 2.66645 3.08915 0.016079 0.308056 -0.189917
Li 3.77886 6.50585 2.90131 -0.02919 0.003604 0.0053
Zr 0.01428 0.01652 5.79842 -0.160504 -0.179396 0.014829
Zr 0.04762 6.18947 2.85413 -0.741171 0.778619 0.794676
Zr 5.33378 3.12991 2.95035 0.968636 -0.304254 -0.712684
Cl -3.64623 8.28183 4.36015 -0.622699 0.209553 0.33429
Cl 8.97835 0.96863 1.44183 0.55135 -0.423847 -0.358246
Cl -0.05038 2.1012 4.46931 0.392224 -0.269617 0.157876
Cl 5.46636 7.23903 1.3042 0.047144 0.305238 -0.054135
Cl 3.54266 8.35933 4.49145 0.247856 0.155416 0.046869
Cl 1.84379 1.01473 1.33839 -0.468663 0.202967 -0.17258
Cl -1.97421 7.0863 1.59014 0.666857 -0.395078 -0.184006
Cl 7.12975 1.83964 4.20871 -0.703752 0.374284 0.187324
Cl 0.36894 4.17998 1.62772 -0.169552 -0.263009 -0.307935
Cl 5.67546 5.28178 4.06888 -0.253673 -0.166346 0.215079
Cl 1.75023 7.55066 1.72674 -0.057255 -0.347146 -0.163285
Cl 3.4093 2.41076 4.16941 0.009468 -0.27625 0.200308
Cl 1.76901 5.52713 4.49043 0.168437 0.01876 -0.145995
Cl 3.90908 4.30227 1.30992 -0.083844 0.123749 0.154341
Cl -0.40145 8.25615 4.33792 0.337336 -0.263673 -0.121018
Cl 5.14688 1.10038 1.53169 -0.004034 -0.007934 -0.089783
Cl -1.62151 5.01147 4.27048 -0.006917 0.010261 0.08893
Cl 7.33801 3.76865 1.46576 -0.350695 0.172947 0.081726
27
energy=-122.99653647 config_type=nep2xyz pbc="T T T" virial="7.521563955884879 -2.69886680438909 0.5940116885953648 -2.69886680438909 7.185690671090714 1.8625975996547315 0.5940116885953648 1.8625975996547315 6.670875182803908" Lattice="10.793967597 0.0 0.0 -5.396983798 9.347850146 0.0 0.0 0.0 5.800997416" volume=585.3229108146729 Properties=species:S:1:pos:R:3:force:R:3
Li 1.63937 9.22767 5.79628 0.04175 0.145988 0.008838
Li -3.31932 6.5619 0.05193 -0.249661 -0.159802 -0.423006
Li 2.20156 3.22043 0.16765 -0.273176 -0.084234 -0.293345
Li -1.56357 9.0733 2.79375 -0.343039 0.625029 0.106408
Li 8.72183 3.34834 2.9374 0.302259 -0.295042 -0.063548
Li 3.92523 6.60619 2.93889 -0.317687 -0.103186 0.270081
Zr 0.07044 0.10855 0.0698 0.394945 -0.071784 -1.353126
Zr 0.05457 6.20195 2.95441 0.697101 -2.021101 0.400856
Zr 5.37787 3.1252 2.81374 -1.267152 -0.686349 -0.092121
Cl -3.85932 8.45684 4.2089 0.800446 -1.063664 0.129908
Cl 9.26769 0.94841 1.47281 -1.70974 0.910691 1.059573
Cl 0.34801 1.96522 4.35299 -0.674598 0.73 0.077371
Cl 5.47126 7.3824 1.43131 0.351221 -0.400653 -0.373922
Cl 3.51694 8.58383 4.42971 0.242334 -0.187287 0.107639
Cl 1.81834 1.11892 1.36202 0.550468 -0.092863 0.390729
Cl -1.92079 7.03901 1.80481 -0.257023 0.145953 -0.547237
Cl 6.80823 1.67706 4.0727 0.798411 0.490935 0.193004
Cl 0.14821 4.10153 1.68378 -0.362906 0.196366 0.056608
Cl 5.52073 5.10575 4.15449 0.171312 0.191782 0.335308
Cl 1.52309 7.37215 1.50608 0.523622 0.013742 -0.251272
Cl 3.53912 2.15499 4.24576 0.535842 0.02219 -0.445214
Cl 2.05181 5.55763 4.36305 -0.636028 -0.186136 -0.170292
Cl 3.59282 4.36546 1.60488 0.214342 -0.075827 -0.269379
Cl -0.14112 8.0402 4.37976 -0.33896 1.232713 1.023824
Cl 5.23042 0.93326 1.28807 -0.17451 0.583932 0.28796
Cl -1.80866 5.07175 4.47832 0.498206 0.089923 -0.19203
Cl 7.03321 3.90236 1.2382 0.482221 0.048684 0.026384
27
energy=-124.08178631 config_type=nep2xyz pbc="T T T" virial="4.618138020400804 0.9739035644734774 0.41767063348447847 0.9739035644734774 1.5405520488843645 -1.0635774242748366 0.41767063348447847 -1.0635774242748366 4.391823497994929" Lattice="10.793967597 0.0 0.0 -5.396983798 9.347850146 0.0 0.0 0.0 5.800997416" volume=585.3229108146729 Properties=species:S:1:pos:R:3:force:R:3
Li 7.14757 0.13269 5.58283 -0.049 -0.270418 0.190304
Li 7.24361 5.87435 0.12917 0.10319 0.119505 -0.211553
Li 1.77895 3.39883 0.04018 -0.113062 -0.147813 0.007098
Li 3.5234 0.26542 2.83665 -0.267065 -0.506001 0.028692
Li 9.0117 2.91563 2.97523 0.146051 0.126513 0.021817
Li 3.55788 6.72457 2.79185 0.297549 -0.489011 -0.210981
Zr -5.32836 9.31667 5.80001 0.008383 0.1816 0.349466
Zr 0.12333 6.33933 2.86394 -1.422614 -0.398292 0.855651
Zr 5.31728 3.0449 2.88092 -0.201034 0.745183 0.335301
Cl -3.56996 8.36966 4.52332 0.40575 -0.291171 -0.38432
Cl 8.98303 0.74105 1.45678 -0.214001 0.185813 -0.144462
Cl 0.05966 1.9961 4.41304 -0.076231 0.335005 -0.116343
Cl 5.60979 7.25473 1.36769 -0.236104 -0.094969 0.146872
Cl 3.80244 8.34509 4.33722 -0.80239 0.081963 -0.04844
Cl 1.56548 1.21942 1.418 0.532417 0.177989 0.453604
Cl -1.80376 7.30853 1.72034 -0.134997 0.020606 -0.390365
Cl 7.11347 1.99819 4.25945 0.088474 0.221424 0.015405
Cl -0.08945 4.27774 1.53814 0.113461 -0.128826 -0.14644
Cl 5.41639 5.28025 4.11935 0.006998 -0.732147 0.038508
Cl 1.65385 7.30063 1.30914 0.561056 0.142528 -0.04329
Cl 3.6694 2.01799 4.37585 -0.096065 0.294025 0.044181
Cl 1.83833 5.35078 4.31185 0.207259 0.129737 -0.036401
Cl 3.58127 4.16629 1.56649 0.017046 0.096674 -0.225652
Cl -0.21724 8.28125 4.39787 0.514392 -0.074454 -0.108285
Cl 5.16387 1.08259 1.39892 0.201951 0.096921 0.061747
Cl -1.64115 5.13532 4.32071 0.05676 0.013204 -0.013802
Cl 7.17211 3.8699 1.5508 0.351829 0.164411 -0.468313
27
energy=-121.30679408 config_type=nep2xyz pbc="T T T" virial="4.925888214966383 2.492166840496761 -0.08292987115989803 2.492166840496761 12.96915777971109 -4.022244883186613 -0.08292987115989803 -4.022244883186613 9.348253286657204" Lattice="10.793967597 0.0 0.0 -5.396983798 9.347850146 0.0 0.0 0.0 5.800997416" volume=585.3229108146729 Properties=species:S:1:pos:R:3:force:R:3
Li 1.20477 9.31624 2.62746 0.646165 -0.10807 0.186552
Li 7.25364 5.95403 5.1773 0.116804 0.114859 0.227779
Li 1.6649 3.26794 0.18303 0.140659 -0.113522 -0.136309
Li 3.22744 0.43126 3.65166 -0.052478 0.172518 -0.197594
Li -1.61412 3.30456 0.29676 0.31001 -0.822421 -0.298117
Li 3.64188 6.65311 2.77981 -0.555841 -0.173921 0.345264
Zr 5.52752 9.09336 0.2108 -0.133977 3.275573 -1.668914
Zr -0.17734 6.31558 2.85502 -0.737826 -2.161382 -0.004965
Zr 5.5178 3.2382 2.58549 -0.240501 -0.347367 0.472989
Cl -3.45103 8.07343 4.30576 -1.317085 0.165595 0.988032
Cl 9.24275 1.12226 1.60481 0.71646 -0.899834 -1.000401
Cl 0.17081 1.78021 4.58743 0.308069 0.561566 0.152382
Cl 5.41715 7.33389 1.55832 0.061919 -2.122688 0.924322
Cl 3.62282 8.47617 4.53137 0.305082 -0.332154 0.162308
Cl 1.95055 0.66446 1.71498 -0.761206 0.284385 -0.98296
Cl -1.80701 7.05043 1.27047 -0.231783 -0.039954 0.119444
Cl 7.33078 1.88767 3.6389 -0.865005 1.149491 0.738598
Cl -0.08782 4.09454 1.68651 0.672661 -0.044779 -0.020771
Cl 5.47176 5.42273 3.79201 0.20091 -0.963359 0.646061
Cl 1.42611 7.31504 1.48695 1.501214 0.682526 -1.395204
Cl 3.59152 2.44483 4.53102 0.942983 0.352831 -0.673175
Cl 1.84247 5.65371 4.10749 -0.089549 -0.418023 0.599998
Cl 3.52246 4.29288 1.54602 0.367605 -0.24757 -0.258008
Cl -0.39436 8.29928 4.02203 0.298965 1.292785 1.580749
Cl 5.04385 1.04849 1.58065 -0.339713 0.83923 -0.739034
Cl -1.62239 4.96784 4.47217 0.286574 0.195142 -0.640437
Cl 7.27266 4.15304 0.96802 -1.551117 -0.291457 0.871413
27